# vtk DataFile Version 3.0
d-2__ created by libgimli-v1.0.5-138-g5873f65d
ASCII
DATASET UNSTRUCTURED_GRID
POINTS 1184 double
0	0	0
0	50	0
4	50	0
4	80	0
40	80	0
40	0	0
4	0	0
22	51	0
19.32050807568	61	0
12	68.32050807568	0
2	31	0
12	33.67949192432	0
19.32050807568	41	0
0.078715979016	49.078715979016	0
4.509155287544	53.187501259073	0
4.867893759311	51.19277738671	0
4.884162732094	55.548772377993	0
4.32853249893	54.426601168947	0
6.405831208807	54.096693063726	0
1.204979746341	49.697439957917	0
1.63401700749	47.5820316587	0
2.624606267332	49.098781209123	0
4.99329987757	48.056356930187	0
5.082464663029	49.630639417299	0
3.953024992727	48.904942715749	0
3.099811323717	47.706573006589	0
7.562359358942	48.70051592002	0
2.56662532412	45.293793959294	0
6.17740404684	48.778957523915	0
6.744094854945	46.518859603143	0
6.985406091175	50.77942111501	0
6.813102874087	47.737256702914	0
5.778336314326	47.184711388023	0
4.278917482019	46.62361824344	0
5.474967086541	45.711402276185	0
8.732387710177	47.017398748074	0
2.45706163225	46.58330816105	0
0.444013159002	45.762857668332	0
5.837649651417	50.530174930197	0
6.603623419812	49.770215163196	0
6.122125745716	51.987468986299	0
7.812903553966	49.889561596306	0
9.594353148213	48.893272820214	0
8.82610963244	51.661444048602	0
4.076095041605	45.117481470285	0
7.404347840428	44.079991757133	0
7.502706378556	52.061565237522	0
8.806031591087	53.983678535497	0
8.454029983614	52.819431088469	0
10.496986705104	52.837094494025	0
7.590657622328	53.715801603579	0
7.609031724879	55.806203129031	0
6.701517554801	52.983228943841	0
5.624707764218	53.293268955249	0
5.375908491428	54.316595244792	0
5.149949460229	52.364778796179	0
6.131198398269	55.332234769938	0
5.854914454168	57.440216455071	0
3.038630213757	42.785092641726	0
6.693997364309	45.196491025196	0
5.423324194662	43.888683401262	0
8.30911095306	45.439852133683	0
6.583276006573	56.463583112665	0
8.150310740876	57.779767424289	0
7.012438785725	57.543565989063	0
7.202608489513	59.486327594479	0
6.335586570687	58.590508838577	0
5.33258664761	60.428751264977	0
4.396477991896	58.725227890337	0
3.193738918987	44.113029731036	0
1.115966458836	43.76642239385	0
4.239802526239	43.317817825282	0
4.493480157748	41.125287593836	0
5.438216086183	42.345534828115	0
10.037364951327	43.30906813284	0
6.496591387497	43.127394640443	0
7.221173119979	41.039282544155	0
8.095586696693	42.51247908214	0
10.728816420267	45.636171646959	0
8.841044806983	44.105022155889	0
5.856185615701	41.046096951425	0
5.047844900745	38.90049442197	0
6.531310699317	39.566678693789	0
9.483898721348	45.970199638062	0
9.838432742957	44.804633517972	0
10.533240267092	47.394171542258	0
11.21200306497	44.226325438998	0
7.999774390602	39.776645694063	0
12.095573173683	41.884078674421	0
13.231201233119	45.706073661136	0
6.271785720872	38.159801137496	0
11.288627540274	42.917451851475	0
10.035010901405	41.106768931288	0
13.253219207405	43.619819586745	0
11.990906679285	45.280996258703	0
12.119156125036	46.928798743752	0
3.019017097142	39.015689654537	0
8.65757925056	38.447072634752	0
14.635907761717	48.100681852367	0
11.963571493584	49.333551115085	0
7	32.33974596216	0
4.622836747519	37.767821581646	0
13.560230675634	47.122374088453	0
11.602411336279	48.102775224087	0
12.96174644574	48.37226806759	0
10.798740337417	49.006982829268	0
14.004146630847	50.453556119393	0
10.884801451746	50.940705710395	0
13.158469902584	49.575424199796	0
10.096763989421	50.007001101695	0
14.341102174389	49.282777746396	0
12.500428429198	51.055421373047	0
8.959904941734	49.849661684534	0
16.384082175755	49.164472116536	0
15.420717645172	50.227374060935	0
7.421390178584	38.662980061224	0
7.653472149252	36.567915785752	0
9.505874140623	39.694276289085	0
8.628979483396	41.036022657067	0
20.66025403784	46	0
14.217422476093	53.165810843057	0
11.615930260318	52.078071582032	0
13.012689982464	52.392310197969	0
11.96346169984	53.79467759516	0
17.606840903789	51.240748560261	0
12.02368263213	39.420852032763	0
14.806203248156	46.832914554996	0
14.459639117173	45.653190180127	0
16.106169510127	47.652856531401	0
13.801906800526	44.668853567425	0
15.209765703363	43.264475898334	0
15.070721116604	44.532949859233	0
16.937742278037	44.095746870031	0
14.936651237698	51.744742156355	0
16.67176622298	50.393240673307	0
16.089120813983	45.815268920414	0
16.315712354227	51.725681484332	0
17.616177912166	53.226882448981	0
15.643595059071	52.995081044066	0
20.66025403784	56	0
9.98449715485	38.456648384599	0
9.332391340434	36.878648806758	0
13.332941501533	40.337001183198	0
18.498344434749	49.317533988089	0
13.809137322041	51.576717421674	0
15.204286485005	55.367417970279	0
10.576541948891	40.098548053017	0
15.66025403784	37.33974596216	0
11.435568616975	40.90665483197	0
15.054089081437	54.112760492388	0
17.518417812911	48.174567792432	0
16.506108594101	54.164306451302	0
13.406620289965	54.946301021815	0
13.790232018494	38.289893798107	0
17.252035030203	46.723352574198	0
21.33012701892	48.5	0
18.462562126086	55.355112543094	0
13.139916187213	39.219253138355	0
12.337121091934	37.965292435401	0
14.593027113772	39.543854501062	0
17.683471077848	54.432536348665	0
19.44723265666	53.733335552907	0
16.835605407242	55.938785274721	0
11.218224832176	38.485878185247	0
10.629911879687	37.266191142666	0
9.5	33.00961894324	0
13.83012701892	35.50961894324	0
15.016780675293	38.388606188925	0
14.74519052838	36.4246824527	0
13.274268775649	37.184855680255	0
17.49038105676	39.16987298108	0
11.930517770774	36.52416218604	0
16.5753175473	38.25480947162	0
14.885930911276	41.40672879539	0
16.081330252144	39.663860276236	0
17.379682110144	41.110698946616	0
4.801364429926	56.786100208135	0
10.413053641554	60.152757370864	0
5.409097944925	59.277743554434	0
4.470689748684	59.793411286484	0
6.171047631854	63.09022943247	0
5.336887797754	61.890207958477	0
6.87105348339	61.154958145621	0
4.611158105762	63.284609374763	0
5.53180199935	64.31652304196	0
7	69.66025403784	0
4.29415020051	65.167549625397	0
8.771507167479	61.111375554034	0
7.090742868759	63.812554773001	0
7.419338343112	62.447512941456	0
8.510250900612	63.432190474455	0
6.277659458412	66.726701497311	0
5.52897947428	65.637892819474	0
6.607059964023	64.97950776074	0
4.157335131503	67.382860260719	0
8.152594636131	64.936390758671	0
15.66025403784	64.66025403784	0
9.420216548506	64.443174968786	0
10.574266810834	62.489426251767	0
9.083248008038	65.90533989322	0
9.509244749334	47.796406293997	0
8.614338451096	48.41757927526	0
7.85687327044	47.698404296641	0
7.762044124738	46.673197771493	0
10.012694644004	51.750207159021	0
5.8247109479	36.376195727151	0
10.424308399944	54.550092632897	0
13.169456205647	53.763443674999	0
19.99038105676	43.5	0
18.602091619421	47.225594321715	0
21.33012701892	53.5	0
19.99038105676	58.5	0
10.389110107272	35.706544610275	0
12.91506350946	34.59455543378	0
11.726225817708	34.868329616072	0
10.75	33.34455543378	0
9.795375488501	34.407262612841	0
9.029036127135	35.542758574976	0
8.039198193595	34.048376054182	0
14.06174307748	42.507496132391	0
18.40544456622	40.08493649054	0
18.57510476571	45.232498349919	0
16.629500284588	42.524872466911	0
16.145046057415	41.361819636842	0
19.65544456622	42.25	0
0.020673543958	40.725934065898	0
1.477108495186	39.795887081068	0
0.801891909705	38.608333060604	0
0.790991779604	36.935581371417	0
1.519516252922	34.22186206357	0
2.103110021306	37.763442591146	0
0.732180184408	35.465143412016	0
3.362908290074	37.803088195141	0
2.794457691737	35.830646400617	0
3.958662118115	36.563260492966	0
4.551360174948	34.330066515795	0
3.906852097633	35.354260787079	0
2.867157599634	34.463452904078	0
5.11415397676	35.399109240751	0
4.5	31.66987298108	0
6.287952629616	34.098505270943	0
6.296495569473	35.286195535633	0
1.915886696877	36.606430911426	0
8.911728693539	59.319028178003	0
13.630161566138	58.039548695448	0
7.806152505435	60.473506187075	0
10.01397864421	61.354186354025	0
11.676643883767	61.239474537168	0
9.293298926409	62.415754528073	0
12.194495338858	59.359353969646	0
13.102917180542	63.608444632088	0
12.015424605001	62.649346077912	0
14.07649413258	61.408448847387	0
11.365142190263	64.482768054848	0
13.242051853973	62.354597477006	0
12.885368377591	61.198989033074	0
17.49038105676	62.83012701892	0
13.740376031412	59.828345938048	0
16.442245643301	60.079407438611	0
15.052169887603	60.375103130787	0
14.914573215366	58.858205289811	0
14.160623264165	63.091171071535	0
15.120705572849	57.117897127481	0
6.672040065876	37.111640111632	0
7.596085605695	37.621945403587	0
11.821952926889	55.452069389752	0
13.038275344801	56.527621611531	0
10.033137428887	56.690063645378	0
12.066836936973	57.779737161054	0
10.671433027757	55.701002293682	0
11.482099498815	56.664539408489	0
9.18592345618	55.442815673914	0
10.776434336167	57.74544258112	0
9.464903121441	57.879706773553	0
10.23140251319	58.894254104412	0
8.752416527398	56.648648572162	0
18.274429892419	57.390067999061	0
20.99519052838	54.75	0
19.736026118563	55.082480894328	0
19.351010288174	56.394564370726	0
20.3253175473	57.25	0
18.878065619363	52.227861300816	0
19.023073087643	50.729006168205	0
20.09300135772	49.527977213518	0
20.442510235468	51.622772280252	0
19.441758066607	48.315778990831	0
20.99519052838	47.25	0
19.802087907213	46.899817902752	0
21.66506350946	49.75	0
21.66506350946	52.25	0
20.758346511308	50.493521484551	0
8.25	32.6746824527	0
7.776423389338	35.297442855904	0
13.279432710949	41.562572946303	0
17.288547955629	45.338044671763	0
18.360432197998	43.266870499333	0
18.399225670747	41.916729857482	0
19.060771190896	44.184920683019	0
20.3253175473	44.75	0
17.991476879143	44.325554720155	0
3.25	31.33493649054	0
0.28205855101	42.124343450117	0
1.34934951421	41.201216550082	0
2.86791076696	40.630797430349	0
1.550883304352	42.512771689252	0
0.079676098857	47.299991610357	0
2.459840012639	41.747047466264	0
3.587492735123	41.79867681423	0
2.484409029219	32.718999898239	0
7.144926248829	33.42193908934	0
5.75	32.00480947162	0
5.348831761293	33.683136835054	0
4.139537851731	33.007424970219	0
[...]
CELL_DATA 2203
SCALARS _Attribute double 1
LOOKUP_TABLE default
0 0 0 0 0 0 0 0 0 0 0 0 0 0 0 0 0 0 0 0 0 0 0 0 0 0 0 0 0 0 0 0 0 0 0 0 0 0 0 0 0 0 0 0 0 0 0 0 0 0 0 0 0 0 0 0 0 0 0 0 0 0 0 0 0 0 0 0 0 0 0 0 0 0 0 0 0 0 0 0 0 0 0 0 0 0 0 0 0 0 0 0 0 0 0 0 0 0 0 0 0 0 0 0 0 0 0 0 0 0 0 0 0 0 0 0 0 0 0 0 0 0 0 0 0 0 0 0 0 0 0 0 0 0 0 0 0 0 0 0 0 0 0 0 0 0 0 0 0 0 0 0 0 0 0 0 0 0 0 0 0 0 0 0 0 0 0 0 0 0 0 0 0 0 0 0 0 0 0 0 0 0 0 0 0 0 0 0 0 0 0 0 0 0 0 0 0 0 0 0 0 0 0 0 0 0 0 0 0 0 0 0 0 0 0 0 0 0 0 0 0 0 0 0 0 0 0 0 0 0 0 0 0 0 0 0 0 0 0 0 0 0 0 0 0 0 0 0 0 0 0 0 0 0 0 0 0 0 0 0 0 0 0 0 0 0 0 0 0 0 0 0 0 0 0 0 0 0 0 0 0 0 0 0 0 0 0 0 0 0 0 0 0 0 0 0 0 0 0 0 0 0 0 0 0 0 0 0 0 0 0 0 0 0 0 0 0 0 0 0 0 0 0 0 0 0 0 0 0 0 0 0 0 0 0 0 0 0 0 0 0 0 0 0 0 0 0 0 0 0 0 0 0 0 0 0 0 0 0 0 0 0 0 0 0 0 0 0 0 0 0 0 0 0 0 0 0 0 0 0 0 0 0 0 0 0 0 0 0 0 0 0 0 0 0 0 0 0 0 0 0 0 0 0 0 0 0 0 0 0 0 0 0 0 0 0 0 0 0 0 0 0 0 0 0 0 0 0 0 0 0 0 0 0 0 0 0 0 0 0 0 0 0 0 0 0 0 0 0 0 0 0 0 0 0 0 0 0 0 0 0 0 0 0 0 0 0 0 0 0 0 0 0 0 0 0 0 0 0 0 0 0 0 0 0 0 0 0 0 0 0 0 0 0 0 0 0 0 0 0 0 0 0 0 0 0 0 0 0 0 0 0 0 0 0 0 0 0 0 0 0 0 0 0 0 0 0 0 0 0 0 0 0 0 0 0 0 0 0 0 0 0 0 0 0 0 0 0 0 0 0 0 0 0 0 0 0 0 0 0 0 0 0 0 0 0 0 0 0 0 0 0 0 0 0 0 0 0 0 0 0 0 0 0 0 0 0 0 0 0 0 0 0 0 0 0 0 0 0 0 0 0 0 0 0 0 0 0 0 0 0 0 0 0 0 0 0 0 0 0 0 0 0 0 0 0 0 0 0 0 0 0 0 0 0 0 0 0 0 0 0 0 0 0 0 0 0 0 0 0 0 0 0 0 0 0 0 0 0 0 0 0 0 0 0 0 0 0 0 0 0 0 0 0 0 0 0 0 0 0 0 0 0 0 0 0 0 0 0 0 0 0 0 0 0 0 0 0 0 0 0 0 0 0 0 0 0 0 0 0 0 0 0 0 0 0 0 0 0 0 0 0 0 0 0 0 0 0 0 0 0 0 0 0 0 0 0 0 0 0 0 0 0 0 0 0 0 0 0 0 0 0 0 0 0 0 0 0 0 0 0 0 0 0 0 0 0 0 0 0 0 0 0 0 0 0 0 0 0 0 0 0 0 0 0 0 0 0 0 0 0 0 0 0 0 0 0 0 0 0 0 0 0 0 0 0 0 0 0 0 0 0 0 0 0 0 0 0 0 0 0 0 0 0 0 0 0 0 0 0 0 0 0 0 0 0 0 0 0 0 0 0 0 0 0 0 0 0 0 0 0 0 0 0 0 0 0 0 0 0 0 0 0 0 0 0 0 0 0 0 0 0 0 0 0 0 0 0 0 0 0 0 0 0 0 0 0 0 0 0 0 0 0 0 0 0 0 0 0 0 0 0 0 0 0 0 0 0 0 0 0 0 0 0 0 0 0 0 0 0 0 0 0 0 0 0 0 0 0 0 0 0 0 0 0 0 0 0 0 0 0 0 0 0 0 0 0 0 0 0 0 0 0 0 0 0 0 0 0 0 0 0 0 0 0 0 0 0 0 0 0 0 0 0 0 0 0 0 0 0 0 0 0 0 0 0 0 0 0 0 0 0 0 0 0 0 0 0 0 0 0 0 0 0 0 0 0 0 0 0 0 0 0 0 0 0 0 0 0 0 0 0 0 0 0 0 0 0 0 0 0 0 0 0 0 0 0 0 0 0 0 0 0 0 0 0 0 0 0 0 0 0 0 0 0 0 0 0 0 0 0 0 0 0 0 0 0 0 0 0 0 0 0 0 0 0 0 0 0 0 0 0 0 0 0 0 0 0 0 0 0 0 0 0 0 0 0 0 0 0 0 0 0 0 0 0 0 0 0 0 0 0 0 0 0 0 0 0 0 0 0 0 0 0 0 0 0 0 0 0 0 0 0 0 0 0 0 0 0 0 0 0 0 0 0 0 0 0 0 0 0 0 0 0 0 0 0 0 0 0 0 0 0 0 0 0 0 0 0 0 0 0 0 0 0 0 0 0 0 0 0 0 0 0 0 0 0 0 0 0 0 0 0 0 0 0 0 0 0 0 0 0 0 0 0 0 0 0 0 0 0 0 0 0 0 0 0 0 0 0 0 0 0 0 0 0 0 0 0 0 0 0 0 0 0 0 0 0 0 0 0 0 0 0 0 0 0 0 0 0 0 0 0 0 0 0 0 0 0 0 0 0 0 0 0 0 0 0 0 0 0 0 0 0 0 0 0 0 0 0 0 0 0 0 0 0 0 0 0 0 0 0 0 0 0 0 0 0 0 0 0 0 0 0 0 0 0 0 0 0 0 0 0 0 0 0 0 0 0 0 0 0 0 0 0 0 0 0 0 0 0 0 0 0 0 0 0 0 0 0 0 0 0 0 0 0 0 0 0 0 0 0 0 0 0 0 0 0 0 0 0 0 0 0 0 0 0 0 0 0 0 0 0 0 0 0 0 0 0 0 0 0 0 0 0 0 0 0 0 0 0 0 0 0 0 0 0 0 0 0 0 0 0 0 0 0 0 0 0 0 0 0 0 0 0 0 0 0 0 0 0 0 0 0 0 0 0 0 0 0 0 0 0 0 0 0 0 0 0 0 0 0 0 0 0 0 0 0 0 0 0 0 0 0 0 0 0 0 0 0 0 0 0 0 0 0 0 0 0 0 0 0 0 0 0 0 0 0 0 0 0 0 0 0 0 0 0 0 0 0 0 0 0 0 0 0 0 0 0 0 0 0 0 0 0 0 0 0 0 0 0 0 0 0 0 0 0 0 0 0 0 0 0 0 0 0 0 0 0 0 0 0 0 0 0 0 0 0 0 0 0 0 0 0 0 0 0 0 0 0 0 0 0 0 0 0 0 0 0 0 0 0 0 0 0 0 0 0 0 0 0 0 0 0 0 0 0 0 0 0 0 0 0 0 0 0 0 0 0 0 0 0 0 0 0 0 0 0 0 0 0 0 0 0 0 0 0 0 0 0 0 0 0 0 0 0 0 0 0 0 0 0 0 0 0 0 0 0 0 0 0 0 0 0 0 0 0 0 0 0 0 0 0 0 0 0 0 0 0 0 0 0 0 0 0 0 0 0 0 0 0 0 0 0 0 0 0 0 0 0 0 0 0 0 0 0 0 0 0 0 0 0 0 0 0 0 0 0 0 0 0 0 0 0 0 0 0 0 0 0 0 0 0 0 0 0 0 0 0 0 0 0 0 0 0 0 0 0 0 0 0 0 0 0 0 0 0 0 0 0 0 0 0 0 0 0 0 0 0 0 0 0 0 0 0 0 0 0 0 0 0 0 0 0 0 0 0 0 0 0 0 0 0 0 0 0 0 0 0 0 0 0 0 0 0 0 0 0 0 0 0 0 0 0 0 0 0 0 0 0 0 0 0 0 0 0 0 0 0 0 0 0 0 0 0 0 0 0 0 0 0 0 0 0 0 0 0 0 0 0 0 0 0 0 0 0 0 0 0 0 0 0 0 0 0 0 0 0 0 0 0 0 0 0 0 0 0 0 0 0 0 0 0 0 0 0 0 0 0 0 0 0 0 0 0 0 0 0 0 0 0 0 0 0 0 0 0 0 0 0 0 0 0 0 0 0 0 0 0 0 0 0 0 0 0 0 0 0 0 0 0 0 0 0 0 0 0 0 0 0 0 0 0 0 0 0 0 0 0 0 0 0 0 0 0 0 0 0 0 0 0 0 0 0 0 0 0 0 0 0 0 0 0 0 0 0 0 0 0 0 0 0 0 0 0 0 0 0 0 0 0 0 0 0 0 0 0 0 0 0 0 0 0 0 0 0 0 0 0 0 0 0 0 0 0 0 0 0 0 0 0 0 0 0 0 0 0 0 0 0 0 0 0 0 0 0 0 0 0 0 0 0 0 0 0 0 0 0 0 0 0 0 0 0 0 0 0 0 0 0 0 0 0 0 0 0 0 0 0 0 0 0 0 0 0 0 0 0 0 0 0 0 0 0 0 0 0 0 0 0 0 0 0 0 0 0 0 0 0 0 0 0 0 0 0 0 0 0 0 0 0 0 0 0 0 0 0 0 0 0 0 0 0 0 0 0 0 0 0 0 0 0 0 0 0 0 0 0 0 0 0 0 0 0 0 0 0 0 0 0 0 0 0 0 0 0 0 0 0 0 0 0 0 0 0 0 0 0 0 0 0 0 0 0 0 0 0 0 0 0 0 0 0 0 0 0 0 0 0 0 0 0 0 0 0 0 0 0 0 0 0 0 0 0 0 0 0 0 0 0 0 0 0 0 0 0 0 0 0 0 0 0 0 0 0 0 0 0 0 0 0 0 0 
SCALARS _Marker double 1
LOOKUP_TABLE default
0 0 0 0 0 0 0 0 0 0 0 0 0 0 0 0 0 0 0 0 0 0 0 0 0 0 0 0 0 0 0 0 0 0 0 0 0 0 0 0 0 0 0 0 0 0 0 0 0 0 0 0 0 0 0 0 0 0 0 0 0 0 0 0 0 0 0 0 0 0 0 0 0 0 0 0 0 0 0 0 0 0 0 0 0 0 0 0 0 0 0 0 0 0 0 0 0 0 0 0 0 0 0 0 0 0 0 0 0 0 0 0 0 0 0 0 0 0 0 0 0 0 0 0 0 0 0 0 0 0 0 0 0 0 0 0 0 0 0 0 0 0 0 0 0 0 0 0 0 0 0 0 0 0 0 0 0 0 0 0 0 0 0 0 0 0 0 0 0 0 0 0 0 0 0 0 0 0 0 0 0 0 0 0 0 0 0 0 0 0 0 0 0 0 0 0 0 0 0 0 0 0 0 0 0 0 0 0 0 0 0 0 0 0 0 0 0 0 0 0 0 0 0 0 0 0 0 0 0 0 0 0 0 0 0 0 0 0 0 0 0 0 0 0 0 0 0 0 0 0 0 0 0 0 0 0 0 0 0 0 0 0 0 0 0 0 0 0 0 0 0 0 0 0 0 0 0 0 0 0 0 0 0 0 0 0 0 0 0 0 0 0 0 0 0 0 0 0 0 0 0 0 0 0 0 0 0 0 0 0 0 0 0 0 0 0 0 0 0 0 0 0 0 0 0 0 0 0 0 0 0 0 0 0 0 0 0 0 0 0 0 0 0 0 0 0 0 0 0 0 0 0 0 0 0 0 0 0 0 0 0 0 0 0 0 0 0 0 0 0 0 0 0 0 0 0 0 0 0 0 0 0 0 0 0 0 0 0 0 0 0 0 0 0 0 0 0 0 0 0 0 0 0 0 0 0 0 0 0 0 0 0 0 0 0 0 0 0 0 0 0 0 0 0 0 0 0 0 0 0 0 0 0 0 0 0 0 0 0 0 0 0 0 0 0 0 0 0 0 0 0 0 0 0 0 0 0 0 0 0 0 0 0 0 0 0 0 0 0 0 0 0 0 0 0 0 0 0 0 0 0 0 0 0 0 0 0 0 0 0 0 0 0 0 0 0 0 0 0 0 0 0 0 0 0 0 0 0 0 0 0 0 0 0 0 0 0 0 0 0 0 0 0 0 0 0 0 0 0 0 0 0 0 0 0 0 0 0 0 0 0 0 0 0 0 0 0 0 0 0 0 0 0 0 0 0 0 0 0 0 0 0 0 0 0 0 0 0 0 0 0 0 0 0 0 0 0 0 0 0 0 0 0 0 0 0 0 0 0 0 0 0 0 0 0 0 0 0 0 0 0 0 0 0 0 0 0 0 0 0 0 0 0 0 0 0 0 0 0 0 0 0 0 0 0 0 0 0 0 0 0 0 0 0 0 0 0 0 0 0 0 0 0 0 0 0 0 0 0 0 0 0 0 0 0 0 0 0 0 0 0 0 0 0 0 0 0 0 0 0 0 0 0 0 0 0 0 0 0 0 0 0 0 0 0 0 0 0 0 0 0 0 0 0 0 0 0 0 0 0 0 0 0 0 0 0 0 0 0 0 0 0 0 0 0 0 0 0 0 0 0 0 0 0 0 0 0 0 0 0 0 0 0 0 0 0 0 0 0 0 0 0 0 0 0 0 0 0 0 0 0 0 0 0 0 0 0 0 0 0 0 0 0 0 0 0 0 0 0 0 0 0 0 0 0 0 0 0 0 0 0 0 0 0 0 0 0 0 0 0 0 0 0 0 0 0 0 0 0 0 0 0 0 0 0 0 0 0 0 0 0 0 0 0 0 0 0 0 0 0 0 0 0 0 0 0 0 0 0 0 0 0 0 0 0 0 0 0 0 0 0 0 0 0 0 0 0 0 0 0 0 0 0 0 0 0 0 0 0 0 0 0 0 0 0 0 0 0 0 0 0 0 0 0 0 0 0 0 0 0 0 0 0 0 0 0 0 0 0 0 0 0 0 0 0 0 0 0 0 0 0 0 0 0 0 0 0 0 0 0 0 0 0 0 0 0 0 0 0 0 0 0 0 0 0 0 0 0 0 0 0 0 0 0 0 0 0 0 0 0 0 0 0 0 0 0 0 0 0 0 0 0 0 0 0 0 0 0 0 0 0 0 0 0 0 0 0 0 0 0 0 0 0 0 0 0 0 0 0 0 0 0 0 0 0 0 0 0 0 0 0 0 0 0 0 0 0 0 0 0 0 0 0 0 0 0 0 0 0 0 0 0 0 0 0 0 0 0 0 0 0 0 0 0 0 0 0 0 0 0 0 0 0 0 0 0 0 0 0 0 0 0 0 0 0 0 0 0 0 0 0 0 0 0 0 0 0 0 0 0 0 0 0 0 0 0 0 0 0 0 0 0 0 0 0 0 0 0 0 0 0 0 0 0 0 0 0 0 0 0 0 0 0 0 0 0 0 0 0 0 0 0 0 0 0 0 0 0 0 0 0 0 0 0 0 0 0 0 0 0 0 0 0 0 0 0 0 0 0 0 0 0 0 0 0 0 0 0 0 0 0 0 0 0 0 0 0 0 0 0 0 0 0 0 0 0 0 0 0 0 0 0 0 0 0 0 0 0 0 0 0 0 0 0 0 0 0 0 0 0 0 0 0 0 0 0 0 0 0 0 0 0 0 0 0 0 0 0 0 0 0 0 0 0 0 0 0 0 0 0 0 0 0 0 0 0 0 0 0 0 0 0 0 0 0 0 0 0 0 0 0 0 0 0 0 0 0 0 0 0 0 0 0 0 0 0 0 0 0 0 0 0 0 0 0 0 0 0 0 0 0 0 0 0 0 0 0 0 0 0 0 0 0 0 0 0 0 0 0 0 0 0 0 0 0 0 0 0 0 0 0 0 0 0 0 0 0 0 0 0 0 0 0 0 0 0 0 0 0 0 0 0 0 0 0 0 0 0 0 0 0 0 0 0 0 0 0 0 0 0 0 0 0 0 0 0 0 0 0 0 0 0 0 0 0 0 0 0 0 0 0 0 0 0 0 0 0 0 0 0 0 0 0 0 0 0 0 0 0 0 0 0 0 0 0 0 0 0 0 0 0 0 0 0 0 0 0 0 0 0 0 0 0 0 0 0 0 0 0 0 0 0 0 0 0 0 0 0 0 0 0 0 0 0 0 0 0 0 0 0 0 0 0 0 0 0 0 0 0 0 0 0 0 0 0 0 0 0 0 0 0 0 0 0 0 0 0 0 0 0 0 0 0 0 0 0 0 0 0 0 0 0 0 0 0 0 0 0 0 0 0 0 0 0 0 0 0 0 0 0 0 0 0 0 0 0 0 0 0 0 0 0 0 0 0 0 0 0 0 0 0 0 0 0 0 0 0 0 0 0 0 0 0 0 0 0 0 0 0 0 0 0 0 0 0 0 0 0 0 0 0 0 0 0 0 0 0 0 0 0 0 0 0 0 0 0 0 0 0 0 0 0 0 0 0 0 0 0 0 0 0 0 0 0 0 0 0 0 0 0 0 0 0 0 0 0 0 0 0 0 0 0 0 0 0 0 0 0 0 0 0 0 0 0 0 0 0 0 0 0 0 0 0 0 0 0 0 0 0 0 0 0 0 0 0 0 0 0 0 0 0 0 0 0 0 0 0 0 0 0 0 0 0 0 0 0 0 0 0 0 0 0 0 0 0 0 0 0 0 0 0 0 0 0 0 0 0 0 0 0 0 0 0 0 0 0 0 0 0 0 0 0 0 0 0 0 0 0 0 0 0 0 0 0 0 0 0 0 0 0 0 0 0 0 0 0 0 0 0 0 0 0 0 0 0 0 0 0 0 0 0 0 0 0 0 0 0 0 0 0 0 0 0 0 0 0 0 0 0 0 0 0 0 0 0 0 0 0 0 0 0 0 0 0 0 0 0 0 0 0 0 0 0 0 0 0 0 0 0 0 0 0 0 0 0 0 0 0 0 0 0 0 0 0 0 0 0 0 0 0 0 0 0 0 0 0 0 0 0 0 0 0 0 0 0 0 0 0 0 0 0 0 0 0 0 0 0 0 0 0 0 0 0 0 0 0 0 0 0 0 0 0 0 0 0 0 0 0 0 0 0 0 0 0 0 0 0 0 0 0 0 0 0 0 0 0 0 0 0 0 0 0 0 0 0 0 0 0 0 0 0 0 0 0 0 0 0 0 0 0 0 0 0 0 0 0 0 0 0 0 0 0 0 0 0 0 0 0 0 0 0 0 0 0 0 0 0 0 0 0 0 0 0 0 0 0 0 0 0 0 0 0 0 0 0 0 0 0 0 0 0 0 0 0 0 0 0 0 0 0 0 0 0 0 0 0 0 0 0 0 0 0 0 0 0 0 0 0 0 0 0 0 0 0 0 0 0 0 0 0 0 0 0 0 0 0 0 0 0 0 0 0 0 0 0 0 0 0 0 0 0 0 0 0 0 0 0 0 0 0 0 0 0 0 0 0 0 0 0 0 0 0 0 0 0 0 0 0 0 0 0 0 0 0 0 0 0 0 0 0 0 0 0 0 0 0 0 0 0 0 0 0 0 0 0 0 0 0 0 0 0 0 0 0 0 0 0 0 0 0 0 0 0 0 0 0 0 0 0 0 0 0 0 0 0 0 0 0 0 0 0 0 0 0 0 0 0 0 0 0 0 0 0 0 0 0 0 0 0 0 0 0 0 0 0 0 0 0 0 0 0 0 0 0 0 0 0 0 0 0 0 0 0 0 0 0 0 0 0 0 0 0 0 0 0 0 0 0 0 0 0 0 0 0 0 0 0 0 0 0 0 0 0 0 0 0 0 0 0 0 0 0 0 0 0 0 0 0 0 0 0 0 0 0 0 0 0 0 0 0 0 0 0 0 0 0 0 0 0 0 0 0 0 0 0 0 0 0 0 0 0 0 0 0 0 0 0 0 0 0 0 0 0 
POINT_DATA 1184
